1.0E-12 1.296798E-6
2.0E-12 6.820722E-7
3.0E-12 6.820523E-7
4.0E-12 6.820147E-7
5.0E-12 6.819679E-7
6.0E-12 6.819396E-7
7.0E-12 6.819123E-7
8.0E-12 6.818922E-7
9.0E-12 6.81885E-7
1.0E-11 6.818872E-7
1.1E-11 6.819017E-7
1.2E-11 6.819308E-7
1.3E-11 6.819766E-7
1.4E-11 6.820418E-7
1.5E-11 6.821295E-7
1.6E-11 6.822433E-7
1.7E-11 6.823824E-7
1.8E-11 6.825485E-7
1.9E-11 6.827432E-7
2.0E-11 6.829681E-7
2.1E-11 6.832246E-7
2.2E-11 6.835142E-7
2.3E-11 6.83838E-7
2.4E-11 6.841974E-7
2.5E-11 6.845932E-7
2.6E-11 6.850267E-7
2.7E-11 6.854991E-7
2.8E-11 6.860106E-7
2.9E-11 6.865611E-7
3.0E-11 6.87151E-7
3.1E-11 6.877804E-7
3.2E-11 6.884494E-7
3.3E-11 6.891577E-7
3.4E-11 6.899053E-7
3.5E-11 6.906919E-7
3.6E-11 6.915176E-7
3.7E-11 6.923833E-7
3.8E-11 6.932896E-7
3.9E-11 6.942398E-7
4.0E-11 6.952386E-7
4.1E-11 6.962942E-7
4.2E-11 6.974206E-7
4.3E-11 6.986433E-7
4.4E-11 7.000094E-7
4.5E-11 7.016123E-7
4.6E-11 7.036524E-7
4.7E-11 7.066178E-7
4.8E-11 7.119477E-7
4.9E-11 7.254163E-7
5.0E-11 7.886117E-7
5.1E-11 2.424234E-6
5.2E-11 0.002009632
5.3E-11 0.3173009
5.4E-11 0.4907092
5.5E-11 0.008237069
