1.0E-12 2.800365E-6
2.0E-12 1.356204E-6
3.0E-12 1.328471E-6
4.0E-12 1.333572E-6
5.0E-12 1.333094E-6
6.0E-12 1.336321E-6
7.0E-12 1.341895E-6
8.0E-12 1.349539E-6
9.0E-12 1.359335E-6
1.0E-11 1.371792E-6
1.1E-11 1.387523E-6
1.2E-11 1.408104E-6
1.3E-11 1.435935E-6
1.4E-11 1.475517E-6
1.5E-11 1.536545E-6
1.6E-11 1.642882E-6
1.7E-11 1.868403E-6
1.8E-11 2.643563E-6
1.9E-11 1.827408E-5
2.0E-11 1.520692E-6
2.1E-11 1.225861E-6
2.2E-11 1.163354E-6
2.3E-11 1.152027E-6
2.4E-11 1.158706E-6
2.5E-11 1.171497E-6
2.6E-11 1.183944E-6
2.7E-11 1.194806E-6
2.8E-11 1.205085E-6
2.9E-11 1.214102E-6
3.0E-11 1.221926E-6
3.1E-11 1.228814E-6
3.2E-11 1.234964E-6
3.3E-11 1.240537E-6
3.4E-11 1.245694E-6
3.5E-11 1.250489E-6
3.6E-11 1.255014E-6
3.7E-11 1.25929E-6
3.8E-11 1.263362E-6
3.9E-11 1.267276E-6
4.0E-11 1.271056E-6
4.1E-11 1.274715E-6
4.2E-11 1.278281E-6
4.3E-11 1.281797E-6
4.4E-11 1.285331E-6
4.5E-11 1.289034E-6
4.6E-11 1.293283E-6
4.7E-11 1.299282E-6
4.8E-11 1.312217E-6
4.9E-11 1.367498E-6
5.0E-11 3.560197E-6
5.1E-11 0.002232148
5.2E-11 0.9903758
5.3E-11 0.9548613
5.4E-11 0.9872039
5.5E-11 0.9176306
