1.0E-12 0.9999956
2.0E-12 0.005444059
3.0E-12 0.004095605
4.0E-12 0.00275955
5.0E-12 0.001941932
6.0E-12 0.001503882
7.0E-12 0.001218266
8.0E-12 0.001023517
9.0E-12 8.889672E-4
1.0E-11 7.877421E-4
1.1E-11 7.078697E-4
1.2E-11 6.433925E-4
1.3E-11 5.903618E-4
1.4E-11 5.461084E-4
1.5E-11 5.086608E-4
1.6E-11 4.767506E-4
1.7E-11 4.492446E-4
1.8E-11 4.254514E-4
1.9E-11 4.044551E-4
2.0E-11 3.857959E-4
2.1E-11 3.691187E-4
2.2E-11 3.541387E-4
2.3E-11 3.406254E-4
2.4E-11 3.283912E-4
2.5E-11 3.172825E-4
2.6E-11 3.071734E-4
2.7E-11 2.979609E-4
2.8E-11 2.895615E-4
2.9E-11 2.819114E-4
3.0E-11 2.749673E-4
3.1E-11 2.687041E-4
3.2E-11 2.630828E-4
3.3E-11 2.580938E-4
3.4E-11 2.53754E-4
3.5E-11 2.501068E-4
3.6E-11 2.472301E-4
3.7E-11 2.452526E-4
3.8E-11 2.443797E-4
3.9E-11 2.449381E-4
4.0E-11 2.474563E-4
4.1E-11 2.528141E-4
4.2E-11 2.625403E-4
4.3E-11 2.794378E-4
4.4E-11 3.090106E-4
4.5E-11 3.630448E-4
4.6E-11 4.697396E-4
4.7E-11 7.070805E-4
4.8E-11 0.001337126
4.9E-11 0.003516611
5.0E-11 0.01500144
5.1E-11 0.1291586
5.2E-11 0.4553395
5.3E-11 0.8409875
5.4E-11 0.9774549
5.5E-11 1.0
