1.0E-12 7.461676E-7
2.0E-12 5.08137E-7
3.0E-12 5.435206E-7
4.0E-12 5.532388E-7
5.0E-12 5.570088E-7
6.0E-12 5.597465E-7
7.0E-12 5.618307E-7
8.0E-12 5.634903E-7
9.0E-12 5.648611E-7
1.0E-11 5.660273E-7
1.1E-11 5.670435E-7
1.2E-11 5.679464E-7
1.3E-11 5.687617E-7
1.4E-11 5.695081E-7
1.5E-11 5.701989E-7
1.6E-11 5.708446E-7
1.7E-11 5.71453E-7
1.8E-11 5.720302E-7
1.9E-11 5.72581E-7
2.0E-11 5.731093E-7
2.1E-11 5.736184E-7
2.2E-11 5.741106E-7
2.3E-11 5.745882E-7
2.4E-11 5.75053E-7
2.5E-11 5.755065E-7
2.6E-11 5.759498E-7
2.7E-11 5.763841E-7
2.8E-11 5.768103E-7
2.9E-11 5.772292E-7
3.0E-11 5.776414E-7
3.1E-11 5.780475E-7
3.2E-11 5.784481E-7
3.3E-11 5.788435E-7
3.4E-11 5.792341E-7
3.5E-11 5.796202E-7
3.6E-11 5.800019E-7
3.7E-11 5.803795E-7
3.8E-11 5.807528E-7
3.9E-11 5.811219E-7
4.0E-11 5.814862E-7
4.1E-11 5.818449E-7
4.2E-11 5.821963E-7
4.3E-11 5.825371E-7
4.4E-11 5.8286E-7
4.5E-11 5.83148E-7
4.6E-11 5.833553E-7
4.7E-11 5.833324E-7
4.8E-11 5.824308E-7
4.9E-11 5.827854E-7
5.0E-11 1.025226E-6
5.1E-11 3.610229E-5
5.2E-11 0.04484483
5.3E-11 0.9444251
5.4E-11 0.935129
5.5E-11 0.9803442
