1.0E-12 1.635735E-4
2.0E-12 1.25881E-4
3.0E-12 1.310668E-4
4.0E-12 1.341796E-4
5.0E-12 1.354726E-4
6.0E-12 1.364072E-4
7.0E-12 1.371181E-4
8.0E-12 1.376777E-4
9.0E-12 1.381308E-4
1.0E-11 1.385101E-4
1.1E-11 1.38834E-4
1.2E-11 1.391162E-4
1.3E-11 1.393662E-4
1.4E-11 1.395909E-4
1.5E-11 1.397973E-4
1.6E-11 1.399912E-4
1.7E-11 1.401711E-4
1.8E-11 1.40339E-4
1.9E-11 1.404969E-4
2.0E-11 1.406462E-4
2.1E-11 1.407882E-4
2.2E-11 1.409238E-4
2.3E-11 1.410539E-4
2.4E-11 1.411793E-4
2.5E-11 1.413005E-4
2.6E-11 1.414181E-4
2.7E-11 1.415325E-4
2.8E-11 1.416442E-4
2.9E-11 1.417535E-4
3.0E-11 1.418607E-4
3.1E-11 1.419661E-4
3.2E-11 1.420702E-4
3.3E-11 1.421731E-4
3.4E-11 1.422752E-4
3.5E-11 1.423768E-4
3.6E-11 1.424784E-4
3.7E-11 1.425805E-4
3.8E-11 1.426838E-4
3.9E-11 1.427893E-4
4.0E-11 1.428986E-4
4.1E-11 1.43014E-4
4.2E-11 1.431399E-4
4.3E-11 1.432848E-4
4.4E-11 1.434661E-4
4.5E-11 1.437201E-4
4.6E-11 1.441474E-4
4.7E-11 1.450744E-4
4.8E-11 1.479069E-4
4.9E-11 1.634604E-4
5.0E-11 3.982578E-4
5.1E-11 0.01979079
5.2E-11 0.2524399
5.3E-11 0.9283026
5.4E-11 0.9374129
5.5E-11 0.8663655
