1.0E-12 1.608909E-4
2.0E-12 1.238353E-4
3.0E-12 1.290661E-4
4.0E-12 1.322529E-4
5.0E-12 1.336496E-4
6.0E-12 1.346764E-4
7.0E-12 1.354699E-4
8.0E-12 1.361086E-4
9.0E-12 1.366422E-4
1.0E-11 1.371006E-4
1.1E-11 1.375041E-4
1.2E-11 1.378668E-4
1.3E-11 1.381975E-4
1.4E-11 1.385032E-4
1.5E-11 1.387931E-4
1.6E-11 1.390688E-4
1.7E-11 1.393309E-4
1.8E-11 1.395813E-4
1.9E-11 1.398221E-4
2.0E-11 1.400549E-4
2.1E-11 1.402807E-4
2.2E-11 1.405007E-4
2.3E-11 1.407157E-4
2.4E-11 1.409264E-4
2.5E-11 1.411335E-4
2.6E-11 1.413374E-4
2.7E-11 1.415387E-4
2.8E-11 1.417377E-4
2.9E-11 1.419348E-4
3.0E-11 1.421304E-4
3.1E-11 1.423247E-4
3.2E-11 1.425181E-4
3.3E-11 1.427109E-4
3.4E-11 1.429034E-4
3.5E-11 1.430959E-4
3.6E-11 1.43289E-4
3.7E-11 1.434831E-4
3.8E-11 1.436789E-4
3.9E-11 1.438775E-4
4.0E-11 1.440803E-4
4.1E-11 1.442898E-4
4.2E-11 1.445103E-4
4.3E-11 1.447498E-4
4.4E-11 1.450268E-4
4.5E-11 1.45377E-4
4.6E-11 1.45901E-4
4.7E-11 1.46925E-4
4.8E-11 1.498536E-4
4.9E-11 1.654889E-4
5.0E-11 4.045361E-4
5.1E-11 0.02006815
5.2E-11 0.2513187
5.3E-11 0.8365882
5.4E-11 0.941161
5.5E-11 0.8814202
